# vtk DataFile Version 3.0
vtk output
ASCII
DATASET POLYDATA
POINTS 5 float
8157.161621 6168.767578 1932.899658
3603.431396 5105.623047 2057.091797
4608.736816 1617.012207 4844.825195
9649.925781 2941.189697 5180.535645
10600.050781 5525.374023 3282.485840
VERTICES 5 10
1 0
1 1
1 2
1 3
1 4

CELL_DATA 5
SCALARS cell_scalars int 1
LOOKUP_TABLE default
1
2
3
4
5
