# vtk DataFile Version 3.0
vtk output
ASCII
DATASET POLYDATA
POINTS 4 float
17810.587891 8482.273438 5948.868164
21060.414062 10242.458008 4681.726562
19535.271484 14717.344727 6028.875977
14853.236328 12792.421875 8371.270508
VERTICES 4 8
1 0
1 1
1 2
1 3

CELL_DATA 4
SCALARS cell_scalars int 1
LOOKUP_TABLE default
1
2
3
4
